# vtk DataFile Version 3.0
#This file was generated by the deal.II library on 2015/8/4 at 17:38:34
ASCII
DATASET UNSTRUCTURED_GRID

POINTS 512 double
-1 -1 -1
-0.5 -1 -1
-1 -0.5 -1
-0.5 -0.5 -1
-1 -1 -0.5
-0.5 -1 -0.5
-1 -0.5 -0.5
-0.5 -0.5 -0.5
-0.5 -1 -1
0 -1 -1
-0.5 -0.5 -1
0 -0.5 -1
-0.5 -1 -0.5
0 -1 -0.5
-0.5 -0.5 -0.5
0 -0.5 -0.5
-1 -0.5 -1
-0.5 -0.5 -1
-1 0 -1
-0.5 0 -1
-1 -0.5 -0.5
-0.5 -0.5 -0.5
-1 0 -0.5
-0.5 0 -0.5
-0.5 -0.5 -1
0 -0.5 -1
-0.5 0 -1
0 0 -1
-0.5 -0.5 -0.5
0 -0.5 -0.5
-0.5 0 -0.5
0 0 -0.5
-1 -1 -0.5
-0.5 -1 -0.5
-1 -0.5 -0.5
-0.5 -0.5 -0.5
-1 -1 6.93889e-18
-0.5 -1 1.04083e-17
-1 -0.5 1.04083e-17
-0.5 -0.5 1.56125e-17
-0.5 -1 -0.5
0 -1 -0.5
-0.5 -0.5 -0.5
0 -0.5 -0.5
-0.5 -1 1.04083e-17
0 -1 1.38778e-17
-0.5 -0.5 1.56125e-17
0 -0.5 2.08167e-17
-1 -0.5 -0.5
-0.5 -0.5 -0.5
-1 0 -0.5
-0.5 0 -0.5
-1 -0.5 1.04083e-17
-0.5 -0.5 1.56125e-17
-1 0 1.38778e-17
-0.5 0 2.08167e-17
-0.5 -0.5 -0.5
0 -0.5 -0.5
-0.5 0 -0.5
0 0 -0.5
-0.5 -0.5 1.56125e-17
0 -0.5 2.08167e-17
-0.5 0 2.08167e-17
0 0 2.77556e-17
0 -1 -1
0.5 -1 -1
0 -0.5 -1
0.5 -0.5 -1
0 -1 -0.5
0.5 -1 -0.5
0 -0.5 -0.5
0.5 -0.5 -0.5
0.5 -1 -1
1 -1 -1
0.5 -0.5 -1
1 -0.5 -1
0.5 -1 -0.5
1 -1 -0.5
0.5 -0.5 -0.5
1 -0.5 -0.5
0 -0.5 -1
0.5 -0.5 -1
0 0 -1
0.5 0 -1
0 -0.5 -0.5
0.5 -0.5 -0.5
0 0 -0.5
0.5 0 -0.5
0.5 -0.5 -1
1 -0.5 -1
0.5 0 -1
1 0 -1
0.5 -0.5 -0.5
1 -0.5 -0.5
0.5 0 -0.5
1 0 -0.5
0 -1 -0.5
0.5 -1 -0.5
0 -0.5 -0.5
0.5 -0.5 -0.5
0 -1 1.38778e-17
0.5 -1 1.04083e-17
0 -0.5 2.08167e-17
0.5 -0.5 1.56125e-17
0.5 -1 -0.5
1 -1 -0.5
0.5 -0.5 -0.5
1 -0.5 -0.5
0.5 -1 1.04083e-17
1 -1 6.93889e-18
0.5 -0.5 1.56125e-17
1 -0.5 1.04083e-17
0 -0.5 -0.5
0.5 -0.5 -0.5
0 0 -0.5
0.5 0 -0.5
0 -0.5 2.08167e-17
0.5 -0.5 1.56125e-17
0 0 2.77556e-17
0.5 0 2.08167e-17
0.5 -0.5 -0.5
1 -0.5 -0.5
0.5 0 -0.5
1 0 -0.5
0.5 -0.5 1.56125e-17
1 -0.5 1.04083e-17
0.5 0 2.08167e-17
1 0 1.38778e-17
-1 0 -1
-0.5 0 -1
-1 0.5 -1
-0.5 0.5 -1
-1 0 -0.5
-0.5 0 -0.5
-1 0.5 -0.5
-0.5 0.5 -0.5
-0.5 0 -1
0 0 -1
-0.5 0.5 -1
0 0.5 -1
-0.5 0 -0.5
0 0 -0.5
-0.5 0.5 -0.5
0 0.5 -0.5
-1 0.5 -1
-0.5 0.5 -1
-1 1 -1
-0.5 1 -1
-1 0.5 -0.5
-0.5 0.5 -0.5
-1 1 -0.5
-0.5 1 -0.5
-0.5 0.5 -1
0 0.5 -1
-0.5 1 -1
0 1 -1
-0.5 0.5 -0.5
0 0.5 -0.5
-0.5 1 -0.5
0 1 -0.5
-1 0 -0.5
-0.5 0 -0.5
-1 0.5 -0.5
-0.5 0.5 -0.5
-1 0 1.38778e-17
-0.5 0 2.08167e-17
-1 0.5 1.04083e-17
-0.5 0.5 1.56125e-17
-0.5 0 -0.5
0 0 -0.5
-0.5 0.5 -0.5
0 0.5 -0.5
-0.5 0 2.08167e-17
0 0 2.77556e-17
-0.5 0.5 1.56125e-17
0 0.5 2.08167e-17
-1 0.5 -0.5
-0.5 0.5 -0.5
-1 1 -0.5
-0.5 1 -0.5
-1 0.5 1.04083e-17
-0.5 0.5 1.56125e-17
-1 1 6.93889e-18
-0.5 1 1.04083e-17
-0.5 0.5 -0.5
0 0.5 -0.5
-0.5 1 -0.5
0 1 -0.5
-0.5 0.5 1.56125e-17
0 0.5 2.08167e-17
-0.5 1 1.04083e-17
0 1 1.38778e-17
0 0 -1
0.5 0 -1
0 0.5 -1
0.5 0.5 -1
0 0 -0.5
0.5 0 -0.5
0 0.5 -0.5
0.5 0.5 -0.5
0.5 0 -1
1 0 -1
0.5 0.5 -1
1 0.5 -1
0.5 0 -0.5
1 0 -0.5
0.5 0.5 -0.5
1 0.5 -0.5
0 0.5 -1
0.5 0.5 -1
0 1 -1
0.5 1 -1
0 0.5 -0.5
0.5 0.5 -0.5
0 1 -0.5
0.5 1 -0.5
0.5 0.5 -1
1 0.5 -1
0.5 1 -1
1 1 -1
0.5 0.5 -0.5
1 0.5 -0.5
0.5 1 -0.5
1 1 -0.5
0 0 -0.5
0.5 0 -0.5
0 0.5 -0.5
0.5 0.5 -0.5
0 0 2.77556e-17
0.5 0 2.08167e-17
0 0.5 2.08167e-17
0.5 0.5 1.56125e-17
0.5 0 -0.5
1 0 -0.5
0.5 0.5 -0.5
1 0.5 -0.5
0.5 0 2.08167e-17
1 0 1.38778e-17
0.5 0.5 1.56125e-17
1 0.5 1.04083e-17
0 0.5 -0.5
0.5 0.5 -0.5
0 1 -0.5
0.5 1 -0.5
0 0.5 2.08167e-17
0.5 0.5 1.56125e-17
0 1 1.38778e-17
0.5 1 1.04083e-17
0.5 0.5 -0.5
1 0.5 -0.5
0.5 1 -0.5
1 1 -0.5
0.5 0.5 1.56125e-17
1 0.5 1.04083e-17
0.5 1 1.04083e-17
1 1 6.93889e-18
-1 -1 6.93889e-18
-0.5 -1 1.04083e-17
-1 -0.5 1.04083e-17
-0.5 -0.5 1.56125e-17
-1 -1 0.5
-0.5 -1 0.5
-1 -0.5 0.5
-0.5 -0.5 0.5
-0.5 -1 1.04083e-17
0 -1 1.38778e-17
-0.5 -0.5 1.56125e-17
0 -0.5 2.08167e-17
-0.5 -1 0.5
0 -1 0.5
-0.5 -0.5 0.5
0 -0.5 0.5
-1 -0.5 1.04083e-17
-0.5 -0.5 1.56125e-17
-1 0 1.38778e-17
-0.5 0 2.08167e-17
-1 -0.5 0.5
-0.5 -0.5 0.5
-1 0 0.5
-0.5 0 0.5
-0.5 -0.5 1.56125e-17
0 -0.5 2.08167e-17
-0.5 0 2.08167e-17
0 0 2.77556e-17
-0.5 -0.5 0.5
0 -0.5 0.5
-0.5 0 0.5
0 0 0.5
-1 -1 0.5
-0.5 -1 0.5
-1 -0.5 0.5
-0.5 -0.5 0.5
-1 -1 1
-0.5 -1 1
-1 -0.5 1
-0.5 -0.5 1
-0.5 -1 0.5
0 -1 0.5
-0.5 -0.5 0.5
0 -0.5 0.5
-0.5 -1 1
0 -1 1
-0.5 -0.5 1
0 -0.5 1
-1 -0.5 0.5
-0.5 -0.5 0.5
-1 0 0.5
-0.5 0 0.5
-1 -0.5 1
-0.5 -0.5 1
-1 0 1
-0.5 0 1
-0.5 -0.5 0.5
0 -0.5 0.5
-0.5 0 0.5
0 0 0.5
-0.5 -0.5 1
0 -0.5 1
-0.5 0 1
0 0 1
0 -1 1.38778e-17
0.5 -1 1.04083e-17
0 -0.5 2.08167e-17
0.5 -0.5 1.56125e-17
0 -1 0.5
0.5 -1 0.5
0 -0.5 0.5
0.5 -0.5 0.5
0.5 -1 1.04083e-17
1 -1 6.93889e-18
0.5 -0.5 1.56125e-17
1 -0.5 1.04083e-17
0.5 -1 0.5
1 -1 0.5
0.5 -0.5 0.5
1 -0.5 0.5
0 -0.5 2.08167e-17
0.5 -0.5 1.56125e-17
0 0 2.77556e-17
0.5 0 2.08167e-17
0 -0.5 0.5
0.5 -0.5 0.5
0 0 0.5
0.5 0 0.5
0.5 -0.5 1.56125e-17
1 -0.5 1.04083e-17
0.5 0 2.08167e-17
1 0 1.38778e-17
0.5 -0.5 0.5
1 -0.5 0.5
0.5 0 0.5
1 0 0.5
0 -1 0.5
0.5 -1 0.5
0 -0.5 0.5
0.5 -0.5 0.5
0 -1 1
0.5 -1 1
0 -0.5 1
0.5 -0.5 1
0.5 -1 0.5
1 -1 0.5
0.5 -0.5 0.5
1 -0.5 0.5
0.5 -1 1
1 -1 1
0.5 -0.5 1
1 -0.5 1
0 -0.5 0.5
0.5 -0.5 0.5
0 0 0.5
0.5 0 0.5
0 -0.5 1
0.5 -0.5 1
0 0 1
0.5 0 1
0.5 -0.5 0.5
1 -0.5 0.5
0.5 0 0.5
1 0 0.5
0.5 -0.5 1
1 -0.5 1
0.5 0 1
1 0 1
-1 0 1.38778e-17
-0.5 0 2.08167e-17
-1 0.5 1.04083e-17
-0.5 0.5 1.56125e-17
-1 0 0.5
-0.5 0 0.5
-1 0.5 0.5
-0.5 0.5 0.5
-0.5 0 2.08167e-17
0 0 2.77556e-17
-0.5 0.5 1.56125e-17
0 0.5 2.08167e-17
-0.5 0 0.5
0 0 0.5
-0.5 0.5 0.5
0 0.5 0.5
-1 0.5 1.04083e-17
-0.5 0.5 1.56125e-17
-1 1 6.93889e-18
-0.5 1 1.04083e-17
-1 0.5 0.5
-0.5 0.5 0.5
-1 1 0.5
-0.5 1 0.5
-0.5 0.5 1.56125e-17
0 0.5 2.08167e-17
-0.5 1 1.04083e-17
0 1 1.38778e-17
-0.5 0.5 0.5
0 0.5 0.5
-0.5 1 0.5
0 1 0.5
-1 0 0.5
-0.5 0 0.5
-1 0.5 0.5
-0.5 0.5 0.5
-1 0 1
-0.5 0 1
-1 0.5 1
-0.5 0.5 1
-0.5 0 0.5
0 0 0.5
-0.5 0.5 0.5
0 0.5 0.5
-0.5 0 1
0 0 1
-0.5 0.5 1
0 0.5 1
-1 0.5 0.5
-0.5 0.5 0.5
-1 1 0.5
-0.5 1 0.5
-1 0.5 1
-0.5 0.5 1
-1 1 1
-0.5 1 1
-0.5 0.5 0.5
0 0.5 0.5
-0.5 1 0.5
0 1 0.5
-0.5 0.5 1
0 0.5 1
-0.5 1 1
0 1 1
0 0 2.77556e-17
0.5 0 2.08167e-17
0 0.5 2.08167e-17
0.5 0.5 1.56125e-17
0 0 0.5
0.5 0 0.5
0 0.5 0.5
0.5 0.5 0.5
0.5 0 2.08167e-17
1 0 1.38778e-17
0.5 0.5 1.56125e-17
1 0.5 1.04083e-17
0.5 0 0.5
1 0 0.5
0.5 0.5 0.5
1 0.5 0.5
0 0.5 2.08167e-17
0.5 0.5 1.56125e-17
0 1 1.38778e-17
0.5 1 1.04083e-17
0 0.5 0.5
0.5 0.5 0.5
0 1 0.5
0.5 1 0.5
0.5 0.5 1.56125e-17
1 0.5 1.04083e-17
0.5 1 1.04083e-17
1 1 6.93889e-18
0.5 0.5 0.5
1 0.5 0.5
0.5 1 0.5
1 1 0.5
0 0 0.5
0.5 0 0.5
0 0.5 0.5
0.5 0.5 0.5
0 0 1
0.5 0 1
0 0.5 1
0.5 0.5 1
0.5 0 0.5
1 0 0.5
0.5 0.5 0.5
1 0.5 0.5
0.5 0 1
1 0 1
0.5 0.5 1
1 0.5 1
0 0.5 0.5
0.5 0.5 0.5
0 1 0.5
0.5 1 0.5
0 0.5 1
0.5 0.5 1
0 1 1
0.5 1 1
0.5 0.5 0.5
1 0.5 0.5
0.5 1 0.5
1 1 0.5
0.5 0.5 1
1 0.5 1
0.5 1 1
1 1 1

CELLS 64 576
8	0	1	3	2	4	5	7	6
8	8	9	11	10	12	13	15	14
8	16	17	19	18	20	21	23	22
8	24	25	27	26	28	29	31	30
8	32	33	35	34	36	37	39	38
8	40	41	43	42	44	45	47	46
8	48	49	51	50	52	53	55	54
8	56	57	59	58	60	61	63	62
8	64	65	67	66	68	69	71	70
8	72	73	75	74	76	77	79	78
8	80	81	83	82	84	85	87	86
8	88	89	91	90	92	93	95	94
8	96	97	99	98	100	101	103	102
8	104	105	107	106	108	109	111	110
8	112	113	115	114	116	117	119	118
8	120	121	123	122	124	125	127	126
8	128	129	131	130	132	133	135	134
8	136	137	139	138	140	141	143	142
8	144	145	147	146	148	149	151	150
8	152	153	155	154	156	157	159	158
8	160	161	163	162	164	165	167	166
8	168	169	171	170	172	173	175	174
8	176	177	179	178	180	181	183	182
8	184	185	187	186	188	189	191	190
8	192	193	195	194	196	197	199	198
8	200	201	203	202	204	205	207	206
8	208	209	211	210	212	213	215	214
8	216	217	219	218	220	221	223	222
8	224	225	227	226	228	229	231	230
8	232	233	235	234	236	237	239	238
8	240	241	243	242	244	245	247	246
8	248	249	251	250	252	253	255	254
8	256	257	259	258	260	261	263	262
8	264	265	267	266	268	269	271	270
8	272	273	275	274	276	277	279	278
8	280	281	283	282	284	285	287	286
8	288	289	291	290	292	293	295	294
8	296	297	299	298	300	301	303	302
8	304	305	307	306	308	309	311	310
8	312	313	315	314	316	317	319	318
8	320	321	323	322	324	325	327	326
8	328	329	331	330	332	333	335	334
8	336	337	339	338	340	341	343	342
8	344	345	347	346	348	349	351	350
8	352	353	355	354	356	357	359	358
8	360	361	363	362	364	365	367	366
8	368	369	371	370	372	373	375	374
8	376	377	379	378	380	381	383	382
8	384	385	387	386	388	389	391	390
8	392	393	395	394	396	397	399	398
8	400	401	403	402	404	405	407	406
8	408	409	411	410	412	413	415	414
8	416	417	419	418	420	421	423	422
8	424	425	427	426	428	429	431	430
8	432	433	435	434	436	437	439	438
8	440	441	443	442	444	445	447	446
8	448	449	451	450	452	453	455	454
8	456	457	459	458	460	461	463	462
8	464	465	467	466	468	469	471	470
8	472	473	475	474	476	477	479	478
8	480	481	483	482	484	485	487	486
8	488	489	491	490	492	493	495	494
8	496	497	499	498	500	501	503	502
8	504	505	507	506	508	509	511	510

CELL_TYPES 64
 12 12 12 12 12 12 12 12 12 12 12 12 12 12 12 12 12 12 12 12 12 12 12 12 12 12 12 12 12 12 12 12 12 12 12 12 12 12 12 12 12 12 12 12 12 12 12 12 12 12 12 12 12 12 12 12 12 12 12 12 12 12 12 12
POINT_DATA 512
SCALARS solution_new double 1
LOOKUP_TABLE default
0.153068 0.217014 0.216756 0.149934 0.216398 0.14985 0.149846 0.0552398 0.217014 0.280037 0.149934 0.0546146 0.14985 0.0547662 0.0552398 0.0717571 0.216756 0.149934 0.281488 0.0538957 0.149846 0.0552398 0.0546937 0.0719252 0.149934 0.0546146 0.0538957 -0.00544949 0.0552398 0.0717571 0.0719252 0.12108 0.216398 0.14985 0.149846 0.0552398 0.282806 0.053999 0.0538371 0.0720968 0.14985 0.0547662 0.0552398 0.0717571 0.053999 -0.00545977 0.0720968 0.121099 0.149846 0.0552398 0.0546937 0.0719252 0.0538371 0.0720968 -0.00544849 0.121087 0.0552398 0.0717571 0.0719252 0.12108 0.0720968 0.121099 0.121087 0.165283 0.280037 0.211093 0.0546146 0.14516 0.0547662 0.145073 0.0717571 0.0552566 0.211093 0.143333 0.14516 0.212354 0.145073 0.211985 0.0552566 0.147187 0.0546146 0.14516 -0.00544949 0.055713 0.0717571 0.0552566 0.12108 0.071548 0.14516 0.212354 0.055713 0.277478 0.0552566 0.147187 0.071548 0.054329 0.0547662 0.145073 0.0717571 0.0552566 -0.00545977 0.0558009 0.121099 0.0717191 0.145073 0.211985 0.0552566 0.147187 0.0558009 0.278707 0.0717191 0.053459 0.0717571 0.0552566 0.12108 0.071548 0.121099 0.0717191 0.165283 0.121004 0.0552566 0.147187 0.071548 0.054329 0.0717191 0.053459 0.121004 -0.0054496 0.281488 0.0538957 0.213551 0.148608 0.0546937 0.0719252 0.146594 0.0552567 0.0538957 -0.00544949 0.148608 0.0547881 0.0719252 0.12108 0.0552567 0.0716824 0.213551 0.148608 0.148056 0.214715 0.146594 0.0552567 0.214525 0.148609 0.148608 0.0547881 0.214715 0.278819 0.0552567 0.0716824 0.148609 0.0545926 0.0546937 0.0719252 0.146594 0.0552567 -0.00544849 0.121087 0.0559306 0.071734 0.0719252 0.12108 0.0552567 0.0716824 0.121087 0.165283 0.071734 0.121037 0.146594 0.0552567 0.214525 0.148609 0.0559306 0.071734 0.280626 0.0539393 0.0552567 0.0716824 0.148609 0.0545926 0.071734 0.121037 0.0539393 -0.00548225 -0.00544949 0.055713 0.0547881 0.143847 0.12108 0.071548 0.0716824 0.0552118 0.055713 0.277478 0.143847 0.209194 0.071548 0.054329 0.0552118 0.144034 0.0547881 0.143847 0.278819 0.208837 0.0716824 0.0552118 0.0545926 0.143908 0.143847 0.209194 0.208837 0.138458 0.0552118 0.144034 0.143908 0.210139 0.12108 0.071548 0.0716824 0.0552118 0.165283 0.121004 0.121037 0.0713655 0.071548 0.054329 0.0552118 0.144034 0.121004 -0.0054496 0.0713655 0.0555259 0.0716824 0.0552118 0.0545926 0.143908 0.121037 0.0713655 -0.00548225 0.0557196 0.0552118 0.144034 0.143908 0.210139 0.0713655 0.0555259 0.0557196 0.276486 0.282806 0.053999 0.0538371 0.0720968 0.216027 0.150089 0.150106 0.0552577 0.053999 -0.00545977 0.0720968 0.121099 0.150089 0.0552472 0.0552577 0.0716945 0.0538371 0.0720968 -0.00544849 0.121087 0.150106 0.0552577 0.0551697 0.071865 0.0720968 0.121099 0.121087 0.165283 0.0552577 0.0716945 0.071865 0.121039 0.216027 0.150089 0.150106 0.0552577 0.153055 0.217348 0.217113 0.150173 0.150089 0.0552472 0.0552577 0.0716945 0.217348 0.280513 0.150173 0.0547483 0.150106 0.0552577 0.0551697 0.071865 0.217113 0.150173 0.282104 0.054043 0.0552577 0.0716945 0.071865 0.121039 0.150173 0.0547483 0.054043 -0.00548204 -0.00545977 0.0558009 0.121099 0.0717191 0.0552472 0.145223 0.0716945 0.0552018 0.0558009 0.278707 0.0717191 0.053459 0.145223 0.211488 0.0552018 0.147415 0.121099 0.0717191 0.165283 0.121004 0.0716945 0.0552018 0.121039 0.0714965 0.0717191 0.053459 0.121004 -0.0054496 0.0552018 0.147415 0.0714965 0.0547498 0.0552472 0.145223 0.0716945 0.0552018 0.280513 0.2113 0.0547483 0.145351 0.145223 0.211488 0.0552018 0.147415 0.2113 0.143136 0.145351 0.212543 0.0716945 0.0552018 0.121039 0.0714965 0.0547483 0.145351 -0.00548204 0.0558057 0.0552018 0.147415 0.0714965 0.0547498 0.145351 0.212543 0.0558057 0.277868 -0.00544849 0.121087 0.0559306 0.071734 0.0551697 0.071865 0.146787 0.0552025 0.121087 0.165283 0.071734 0.121037 0.071865 0.121039 0.0552025 0.0716282 0.0559306 0.071734 0.280626 0.0539393 0.146787 0.0552025 0.214042 0.148818 0.071734 0.121037 0.0539393 -0.00548225 0.0552025 0.0716282 0.148818 0.0550221 0.0551697 0.071865 0.146787 0.0552025 0.282104 0.054043 0.213796 0.14881 0.071865 0.121039 0.0552025 0.0716282 0.054043 -0.00548204 0.14881 0.0548698 0.146787 0.0552025 0.214042 0.148818 0.213796 0.14881 0.147889 0.214899 0.0552025 0.0716282 0.148818 0.0550221 0.14881 0.0548698 0.214899 0.279088 0.165283 0.121004 0.121037 0.0713655 0.121039 0.0714965 0.0716282 0.0550795 0.121004 -0.0054496 0.0713655 0.0555259 0.0714965 0.0547498 0.0550795 0.144036 0.121037 0.0713655 -0.00548225 0.0557196 0.0716282 0.0550795 0.0550221 0.143888 0.0713655 0.0555259 0.0557196 0.276486 0.0550795 0.144036 0.143888 0.209282 0.121039 0.0714965 0.0716282 0.0550795 -0.00548204 0.0558057 0.0548698 0.143879 0.0714965 0.0547498 0.0550795 0.144036 0.0558057 0.277868 0.143879 0.209022 0.0716282 0.0550795 0.0550221 0.143888 0.0548698 0.143879 0.279088 0.208645 0.0550795 0.144036 0.143888 0.209282 0.143879 0.209022 0.208645 0.137611 
