# vtk DataFile Version 3.0
#This file was generated by the deal.II library on 2015/8/4 at 18:28:41
ASCII
DATASET UNSTRUCTURED_GRID

POINTS 21824 double
-0.625 -0.625 -0.75
-0.5 -0.625 -0.75
-0.625 -0.5 -0.75
-0.5 -0.5 -0.75
-0.625 -0.625 -0.625
-0.5 -0.625 -0.625
-0.625 -0.5 -0.625
-0.5 -0.5 -0.625
-0.625 -0.75 -0.625
-0.5 -0.75 -0.625
-0.625 -0.625 -0.625
-0.5 -0.625 -0.625
-0.625 -0.75 -0.5
-0.5 -0.75 -0.5
-0.625 -0.625 -0.5
-0.5 -0.625 -0.5
-0.75 -0.625 -0.625
-0.625 -0.625 -0.625
-0.75 -0.5 -0.625
-0.625 -0.5 -0.625
-0.75 -0.625 -0.5
-0.625 -0.625 -0.5
-0.75 -0.5 -0.5
-0.625 -0.5 -0.5
-0.625 -0.625 -0.625
-0.5 -0.625 -0.625
-0.625 -0.5 -0.625
-0.5 -0.5 -0.625
-0.625 -0.625 -0.5
-0.5 -0.625 -0.5
-0.625 -0.5 -0.5
-0.5 -0.5 -0.5
-0.5 -0.625 -0.875
-0.375 -0.625 -0.875
-0.5 -0.5 -0.875
-0.375 -0.5 -0.875
-0.5 -0.625 -0.75
-0.375 -0.625 -0.75
-0.5 -0.5 -0.75
-0.375 -0.5 -0.75
-0.375 -0.625 -0.875
-0.25 -0.625 -0.875
-0.375 -0.5 -0.875
-0.25 -0.5 -0.875
-0.375 -0.625 -0.75
-0.25 -0.625 -0.75
-0.375 -0.5 -0.75
-0.25 -0.5 -0.75
-0.25 -0.75 -0.875
-0.125 -0.75 -0.875
-0.25 -0.625 -0.875
-0.125 -0.625 -0.875
-0.25 -0.75 -0.75
-0.125 -0.75 -0.75
-0.25 -0.625 -0.75
-0.125 -0.625 -0.75
-0.125 -0.75 -0.875
0 -0.75 -0.875
-0.125 -0.625 -0.875
0 -0.625 -0.875
-0.125 -0.75 -0.75
0 -0.75 -0.75
-0.125 -0.625 -0.75
0 -0.625 -0.75
-0.25 -0.625 -0.875
-0.125 -0.625 -0.875
-0.25 -0.5 -0.875
-0.125 -0.5 -0.875
-0.25 -0.625 -0.75
-0.125 -0.625 -0.75
-0.25 -0.5 -0.75
-0.125 -0.5 -0.75
-0.125 -0.625 -0.875
0 -0.625 -0.875
-0.125 -0.5 -0.875
0 -0.5 -0.875
-0.125 -0.625 -0.75
0 -0.625 -0.75
-0.125 -0.5 -0.75
0 -0.5 -0.75
-0.5 -0.875 -0.625
-0.375 -0.875 -0.625
-0.5 -0.75 -0.625
-0.375 -0.75 -0.625
-0.5 -0.875 -0.5
-0.375 -0.875 -0.5
-0.5 -0.75 -0.5
-0.375 -0.75 -0.5
-0.375 -0.875 -0.625
-0.25 -0.875 -0.625
-0.375 -0.75 -0.625
-0.25 -0.75 -0.625
-0.375 -0.875 -0.5
-0.25 -0.875 -0.5
-0.375 -0.75 -0.5
-0.25 -0.75 -0.5
-0.25 -0.875 -0.75
-0.125 -0.875 -0.75
-0.25 -0.75 -0.75
-0.125 -0.75 -0.75
-0.25 -0.875 -0.625
-0.125 -0.875 -0.625
-0.25 -0.75 -0.625
-0.125 -0.75 -0.625
-0.125 -0.875 -0.75
0 -0.875 -0.75
-0.125 -0.75 -0.75
0 -0.75 -0.75
-0.125 -0.875 -0.625
0 -0.875 -0.625
-0.125 -0.75 -0.625
0 -0.75 -0.625
-0.25 -0.875 -0.625
-0.125 -0.875 -0.625
-0.25 -0.75 -0.625
-0.125 -0.75 -0.625
-0.25 -0.875 -0.5
-0.125 -0.875 -0.5
-0.25 -0.75 -0.5
-0.125 -0.75 -0.5
-0.125 -0.875 -0.625
0 -0.875 -0.625
-0.125 -0.75 -0.625
0 -0.75 -0.625
-0.125 -0.875 -0.5
0 -0.875 -0.5
-0.125 -0.75 -0.5
0 -0.75 -0.5
-0.5 -0.75 -0.75
-0.375 -0.75 -0.75
-0.5 -0.625 -0.75
-0.375 -0.625 -0.75
-0.5 -0.75 -0.625
-0.375 -0.75 -0.625
-0.5 -0.625 -0.625
-0.375 -0.625 -0.625
-0.375 -0.75 -0.75
-0.25 -0.75 -0.75
-0.375 -0.625 -0.75
-0.25 -0.625 -0.75
-0.375 -0.75 -0.625
-0.25 -0.75 -0.625
-0.375 -0.625 -0.625
-0.25 -0.625 -0.625
-0.5 -0.625 -0.75
-0.375 -0.625 -0.75
-0.5 -0.5 -0.75
-0.375 -0.5 -0.75
-0.5 -0.625 -0.625
-0.375 -0.625 -0.625
-0.5 -0.5 -0.625
-0.375 -0.5 -0.625
-0.375 -0.625 -0.75
-0.25 -0.625 -0.75
-0.375 -0.5 -0.75
-0.25 -0.5 -0.75
-0.375 -0.625 -0.625
-0.25 -0.625 -0.625
-0.375 -0.5 -0.625
-0.25 -0.5 -0.625
-0.5 -0.75 -0.625
-0.375 -0.75 -0.625
-0.5 -0.625 -0.625
-0.375 -0.625 -0.625
-0.5 -0.75 -0.5
-0.375 -0.75 -0.5
-0.5 -0.625 -0.5
-0.375 -0.625 -0.5
-0.375 -0.75 -0.625
-0.25 -0.75 -0.625
-0.375 -0.625 -0.625
-0.25 -0.625 -0.625
-0.375 -0.75 -0.5
-0.25 -0.75 -0.5
-0.375 -0.625 -0.5
-0.25 -0.625 -0.5
-0.5 -0.625 -0.625
-0.375 -0.625 -0.625
-0.5 -0.5 -0.625
-0.375 -0.5 -0.625
-0.5 -0.625 -0.5
-0.375 -0.625 -0.5
-0.5 -0.5 -0.5
-0.375 -0.5 -0.5
-0.375 -0.625 -0.625
-0.25 -0.625 -0.625
-0.375 -0.5 -0.625
-0.25 -0.5 -0.625
-0.375 -0.625 -0.5
-0.25 -0.625 -0.5
-0.375 -0.5 -0.5
-0.25 -0.5 -0.5
-0.25 -0.75 -0.75
-0.125 -0.75 -0.75
-0.25 -0.625 -0.75
-0.125 -0.625 -0.75
-0.25 -0.75 -0.625
-0.125 -0.75 -0.625
-0.25 -0.625 -0.625
-0.125 -0.625 -0.625
-0.125 -0.75 -0.75
0 -0.75 -0.75
-0.125 -0.625 -0.75
0 -0.625 -0.75
-0.125 -0.75 -0.625
0 -0.75 -0.625
-0.125 -0.625 -0.625
0 -0.625 -0.625
-0.25 -0.625 -0.75
-0.125 -0.625 -0.75
-0.25 -0.5 -0.75
-0.125 -0.5 -0.75
-0.25 -0.625 -0.625
-0.125 -0.625 -0.625
-0.25 -0.5 -0.625
-0.125 -0.5 -0.625
-0.125 -0.625 -0.75
0 -0.625 -0.75
-0.125 -0.5 -0.75
0 -0.5 -0.75
-0.125 -0.625 -0.625
0 -0.625 -0.625
-0.125 -0.5 -0.625
0 -0.5 -0.625
-0.25 -0.75 -0.625
-0.125 -0.75 -0.625
-0.25 -0.625 -0.625
-0.125 -0.625 -0.625
-0.25 -0.75 -0.5
-0.125 -0.75 -0.5
-0.25 -0.625 -0.5
-0.125 -0.625 -0.5
-0.125 -0.75 -0.625
0 -0.75 -0.625
-0.125 -0.625 -0.625
0 -0.625 -0.625
-0.125 -0.75 -0.5
0 -0.75 -0.5
-0.125 -0.625 -0.5
0 -0.625 -0.5
-0.25 -0.625 -0.625
-0.125 -0.625 -0.625
-0.25 -0.5 -0.625
-0.125 -0.5 -0.625
-0.25 -0.625 -0.5
-0.125 -0.625 -0.5
-0.25 -0.5 -0.5
-0.125 -0.5 -0.5
-0.125 -0.625 -0.625
0 -0.625 -0.625
-0.125 -0.5 -0.625
0 -0.5 -0.625
-0.125 -0.625 -0.5
0 -0.625 -0.5
-0.125 -0.5 -0.5
0 -0.5 -0.5
-0.625 -0.5 -0.875
-0.5 -0.5 -0.875
-0.625 -0.375 -0.875
-0.5 -0.375 -0.875
-0.625 -0.5 -0.75
-0.5 -0.5 -0.75
-0.625 -0.375 -0.75
-0.5 -0.375 -0.75
-0.625 -0.375 -0.875
-0.5 -0.375 -0.875
-0.625 -0.25 -0.875
-0.5 -0.25 -0.875
-0.625 -0.375 -0.75
-0.5 -0.375 -0.75
-0.625 -0.25 -0.75
-0.5 -0.25 -0.75
-0.75 -0.25 -0.875
-0.625 -0.25 -0.875
-0.75 -0.125 -0.875
-0.625 -0.125 -0.875
-0.75 -0.25 -0.75
-0.625 -0.25 -0.75
-0.75 -0.125 -0.75
-0.625 -0.125 -0.75
-0.625 -0.25 -0.875
-0.5 -0.25 -0.875
-0.625 -0.125 -0.875
-0.5 -0.125 -0.875
-0.625 -0.25 -0.75
-0.5 -0.25 -0.75
-0.625 -0.125 -0.75
-0.5 -0.125 -0.75
-0.75 -0.125 -0.875
-0.625 -0.125 -0.875
-0.75 0 -0.875
-0.625 0 -0.875
-0.75 -0.125 -0.75
-0.625 -0.125 -0.75
-0.75 0 -0.75
-0.625 0 -0.75
-0.625 -0.125 -0.875
-0.5 -0.125 -0.875
-0.625 0 -0.875
-0.5 0 -0.875
-0.625 -0.125 -0.75
-0.5 -0.125 -0.75
-0.625 0 -0.75
-0.5 0 -0.75
-0.875 -0.5 -0.625
-0.75 -0.5 -0.625
-0.875 -0.375 -0.625
-0.75 -0.375 -0.625
-0.875 -0.5 -0.5
-0.75 -0.5 -0.5
-0.875 -0.375 -0.5
-0.75 -0.375 -0.5
-0.875 -0.375 -0.625
-0.75 -0.375 -0.625
-0.875 -0.25 -0.625
-0.75 -0.25 -0.625
-0.875 -0.375 -0.5
-0.75 -0.375 -0.5
-0.875 -0.25 -0.5
-0.75 -0.25 -0.5
-0.75 -0.5 -0.75
-0.625 -0.5 -0.75
-0.75 -0.375 -0.75
-0.625 -0.375 -0.75
-0.75 -0.5 -0.625
-0.625 -0.5 -0.625
-0.75 -0.375 -0.625
-0.625 -0.375 -0.625
-0.625 -0.5 -0.75
-0.5 -0.5 -0.75
-0.625 -0.375 -0.75
-0.5 -0.375 -0.75
-0.625 -0.5 -0.625
-0.5 -0.5 -0.625
-0.625 -0.375 -0.625
-0.5 -0.375 -0.625
-0.75 -0.375 -0.75
-0.625 -0.375 -0.75
-0.75 -0.25 -0.75
-0.625 -0.25 -0.75
-0.75 -0.375 -0.625
-0.625 -0.375 -0.625
-0.75 -0.25 -0.625
-0.625 -0.25 -0.625
-0.625 -0.375 -0.75
-0.5 -0.375 -0.75
-0.625 -0.25 -0.75
-0.5 -0.25 -0.75
-0.625 -0.375 -0.625
-0.5 -0.375 -0.625
-0.625 -0.25 -0.625
-0.5 -0.25 -0.625
-0.75 -0.5 -0.625
-0.625 -0.5 -0.625
-0.75 -0.375 -0.625
-0.625 -0.375 -0.625
-0.75 -0.5 -0.5
-0.625 -0.5 -0.5
-0.75 -0.375 -0.5
-0.625 -0.375 -0.5
-0.625 -0.5 -0.625
-0.5 -0.5 -0.625
-0.625 -0.375 -0.625
-0.5 -0.375 -0.625
-0.625 -0.5 -0.5
-0.5 -0.5 -0.5
-0.625 -0.375 -0.5
-0.5 -0.375 -0.5
-0.75 -0.375 -0.625
-0.625 -0.375 -0.625
-0.75 -0.25 -0.625
-0.625 -0.25 -0.625
-0.75 -0.375 -0.5
-0.625 -0.375 -0.5
-0.75 -0.25 -0.5
-0.625 -0.25 -0.5
-0.625 -0.375 -0.625
-0.5 -0.375 -0.625
-0.625 -0.25 -0.625
-0.5 -0.25 -0.625
-0.625 -0.375 -0.5
-0.5 -0.375 -0.5
-0.625 -0.25 -0.5
-0.5 -0.25 -0.5
-0.875 -0.25 -0.75
-0.75 -0.25 -0.75
-0.875 -0.125 -0.75
-0.75 -0.125 -0.75
-0.875 -0.25 -0.625
-0.75 -0.25 -0.625
-0.875 -0.125 -0.625
-0.75 -0.125 -0.625
-0.875 -0.125 -0.75
-0.75 -0.125 -0.75
-0.875 0 -0.75
-0.75 0 -0.75
-0.875 -0.125 -0.625
-0.75 -0.125 -0.625
-0.875 0 -0.625
-0.75 0 -0.625
-0.875 -0.25 -0.625
-0.75 -0.25 -0.625
-0.875 -0.125 -0.625
-0.75 -0.125 -0.625
-0.875 -0.25 -0.5
-0.75 -0.25 -0.5
-0.875 -0.125 -0.5
-0.75 -0.125 -0.5
-0.875 -0.125 -0.625
-0.75 -0.125 -0.625
-0.875 0 -0.625
-0.75 0 -0.625
-0.875 -0.125 -0.5
-0.75 -0.125 -0.5
-0.875 0 -0.5
-0.75 0 -0.5
-0.75 -0.25 -0.75
-0.625 -0.25 -0.75
-0.75 -0.125 -0.75
-0.625 -0.125 -0.75
-0.75 -0.25 -0.625
-0.625 -0.25 -0.625
-0.75 -0.125 -0.625
-0.625 -0.125 -0.625
-0.625 -0.25 -0.75
-0.5 -0.25 -0.75
-0.625 -0.125 -0.75
-0.5 -0.125 -0.75
-0.625 -0.25 -0.625
-0.5 -0.25 -0.625
-0.625 -0.125 -0.625
-0.5 -0.125 -0.625
-0.75 -0.125 -0.75
-0.625 -0.125 -0.75
-0.75 0 -0.75
-0.625 0 -0.75
-0.75 -0.125 -0.625
-0.625 -0.125 -0.625
-0.75 0 -0.625
-0.625 0 -0.625
-0.625 -0.125 -0.75
-0.5 -0.125 -0.75
-0.625 0 -0.75
-0.5 0 -0.75
-0.625 -0.125 -0.625
-0.5 -0.125 -0.625
-0.625 0 -0.625
-0.5 0 -0.625
-0.75 -0.25 -0.625
-0.625 -0.25 -0.625
-0.75 -0.125 -0.625
-0.625 -0.125 -0.625
-0.75 -0.25 -0.5
-0.625 -0.25 -0.5
-0.75 -0.125 -0.5
-0.625 -0.125 -0.5
-0.625 -0.25 -0.625
-0.5 -0.25 -0.625
-0.625 -0.125 -0.625
-0.5 -0.125 -0.625
-0.625 -0.25 -0.5
-0.5 -0.25 -0.5
-0.625 -0.125 -0.5
-0.5 -0.125 -0.5
-0.75 -0.125 -0.625
-0.625 -0.125 -0.625
-0.75 0 -0.625
-0.625 0 -0.625
-0.75 -0.125 -0.5
-0.625 -0.125 -0.5
-0.75 0 -0.5
-0.625 0 -0.5
-0.625 -0.125 -0.625
-0.5 -0.125 -0.625
-0.625 0 -0.625
-0.5 0 -0.625
-0.625 -0.125 -0.5
-0.5 -0.125 -0.5
-0.625 0 -0.5
-0.5 0 -0.5
-0.375 -0.5 -1
-0.25 -0.5 -1
-0.375 -0.375 -1
-0.25 -0.375 -1
-0.375 -0.5 -0.875
-0.25 -0.5 -0.875
-0.375 -0.375 -0.875
-0.25 -0.375 -0.875
-0.5 -0.375 -1
-0.375 -0.375 -1
-0.5 -0.25 -1
-0.375 -0.25 -1
-0.5 -0.375 -0.875
-0.375 -0.375 -0.875
-0.5 -0.25 -0.875
-0.375 -0.25 -0.875
-0.375 -0.375 -1
-0.25 -0.375 -1
-0.375 -0.25 -1
-0.25 -0.25 -1
-0.375 -0.375 -0.875
-0.25 -0.375 -0.875
-0.375 -0.25 -0.875
-0.25 -0.25 -0.875
-0.5 -0.5 -0.875
-0.375 -0.5 -0.875
-0.5 -0.375 -0.875
-0.375 -0.375 -0.875
-0.5 -0.5 -0.75
-0.375 -0.5 -0.75
-0.5 -0.375 -0.75
-0.375 -0.375 -0.75
-0.375 -0.5 -0.875
-0.25 -0.5 -0.875
-0.375 -0.375 -0.875
-0.25 -0.375 -0.875
-0.375 -0.5 -0.75
-0.25 -0.5 -0.75
-0.375 -0.375 -0.75
-0.25 -0.375 -0.75
-0.5 -0.375 -0.875
-0.375 -0.375 -0.875
-0.5 -0.25 -0.875
-0.375 -0.25 -0.875
-0.5 -0.375 -0.75
-0.375 -0.375 -0.75
-0.5 -0.25 -0.75
-0.375 -0.25 -0.75
-0.375 -0.375 -0.875
-0.25 -0.375 -0.875
-0.375 -0.25 -0.875
-0.25 -0.25 -0.875
-0.375 -0.375 -0.75
-0.25 -0.375 -0.75
-0.375 -0.25 -0.75
[...]
POINT_DATA 21824
SCALARS solution_new double 1
LOOKUP_TABLE default
0.0354664 0.0373055 0.0372556 0.0134715 0.0395593 0.0126686 0.0126499 0.0157223 0.0353918 0.0372761 0.0395593 0.0126686 0.0372087 0.0134646 0.0126126 0.0157068 0.0352805 0.0395593 0.0370436 0.0126499 0.0370353 0.0126126 0.0134902 0.0157207 0.0395593 0.0126686 0.0126499 0.0157223 0.0126126 0.0157068 0.0157207 0.0408163 0.0322887 0.0193865 0.0268235 0.0133614 0.0373055 0.0152963 0.0134715 0.0103047 0.0193865 0.00588413 0.0133614 0.00208238 0.0152963 0.00442483 0.0103047 0.020307 -0.00884154 -0.0191469 0.00588413 -0.00794083 0.00697703 -0.00571004 0.00442483 0.00666402 -0.0191469 -0.0259122 -0.00794083 -0.0129399 -0.00571004 -0.00824176 0.00666402 0.00947184 0.00588413 -0.00794083 0.00208238 0.00228016 0.00442483 0.00666402 0.020307 0.0271019 -0.00794083 -0.0129399 0.00228016 0.0024876 0.00666402 0.00947184 0.0271019 0.0299981 0.0322719 0.0193765 0.0372761 0.0153018 0.0268078 0.0133577 0.0134646 0.0103035 0.0193765 0.00588484 0.0153018 0.00442687 0.0133577 0.00208252 0.0103035 0.0203073 -0.00884251 -0.0191469 0.00697703 -0.00571004 0.00588484 -0.00793967 0.00442687 0.00666283 -0.0191469 -0.0259061 -0.00571004 -0.00824176 -0.00793967 -0.0129355 0.00666283 0.00947186 0.00588484 -0.00793967 0.00442687 0.00666283 0.00208252 0.00228053 0.0203073 0.0271022 -0.00793967 -0.0129355 0.00666283 0.00947186 0.00228053 0.00248827 0.0271022 0.0299987 0.036751 0.0275874 0.0373055 0.0152963 0.0372761 0.0153018 0.0126686 0.0126536 0.0275874 0.00697703 0.0152963 0.00442483 0.0153018 0.00442687 0.0126536 0.0246482 0.0373055 0.0152963 0.0134715 0.0103047 0.0126686 0.0126536 0.0157223 0.0351803 0.0152963 0.00442483 0.0103047 0.020307 0.0126536 0.0246482 0.0351803 0.0489771 0.0372761 0.0153018 0.0126686 0.0126536 0.0134646 0.0103035 0.0157068 0.0351813 0.0153018 0.00442687 0.0126536 0.0246482 0.0103035 0.0203073 0.0351813 0.0489776 0.0126686 0.0126536 0.0157223 0.0351803 0.0157068 0.0351813 0.0408163 0.0585188 0.0126536 0.0246482 0.0351803 0.0489771 0.0351813 0.0489776 0.0585188 0.072329 0.00697703 -0.00571004 0.00442483 0.00666402 0.00442687 0.00666283 0.0246482 0.0321286 -0.00571004 -0.00824176 0.00666402 0.00947184 0.00666283 0.00947186 0.0321286 0.0355346 0.00442483 0.00666402 0.020307 0.0271019 0.0246482 0.0321286 0.0489771 0.0565087 0.00666402 0.00947184 0.0271019 0.0299981 0.0321286 0.0355346 0.0565087 0.0594792 0.00442687 0.00666283 0.0246482 0.0321286 0.0203073 0.0271022 0.0489776 0.0565087 0.00666283 0.00947186 0.0321286 0.0355346 0.0271022 0.0299987 0.0565087 0.0594795 0.0246482 0.0321286 0.0489771 0.0565087 0.0489776 0.0565087 0.072329 0.0803339 0.0321286 0.0355346 0.0565087 0.0594792 0.0565087 0.0594795 0.0803339 0.0827843 0.0321259 0.0268235 0.0192628 0.0132622 0.0372556 0.0134715 0.0151506 0.0102919 0.0192628 0.0132622 0.00570285 0.00202384 0.0151506 0.0102919 0.00439092 0.0203111 -0.00916961 0.00570285 -0.0194265 -0.00820409 0.00678775 0.00439092 -0.00590184 0.00667273 0.00570285 0.00202384 -0.00820409 0.00224472 0.00439092 0.0203111 0.00667273 0.0271124 -0.0194265 -0.00820409 -0.0261649 -0.0131394 -0.00590184 0.00667273 -0.00835848 0.00946083 -0.00820409 0.00224472 -0.0131394 0.00245666 0.00667273 0.0271124 0.00946083 0.0300061 0.0320513 0.0370436 0.0192172 0.0151726 0.0267171 0.0134902 0.0132684 0.0103395 0.0192172 0.0151726 0.00572765 0.00440824 0.0132684 0.0103395 0.00205378 0.0203226 0.0364781 0.0372556 0.027377 0.0151506 0.0370436 0.0126499 0.0151726 0.0126662 0.0372556 0.0134715 0.0151506 0.0102919 0.0126499 0.0157223 0.0126662 0.0351829 0.027377 0.0151506 0.00678775 0.00439092 0.0151726 0.0126662 0.00440824 0.024646 0.0151506 0.0102919 0.00439092 0.0203111 0.0126662 0.0351829 0.024646 0.0489804 0.0370436 0.0126499 0.0151726 0.0126662 0.0134902 0.0157207 0.0103395 0.0351917 0.0126499 0.0157223 0.0126662 0.0351829 0.0157207 0.0408163 0.0351917 0.0585242 0.0151726 0.0126662 0.00440824 0.024646 0.0103395 0.0351917 0.0203226 0.0489862 0.0126662 0.0351829 0.024646 0.0489804 0.0351917 0.0585242 0.0489862 0.0723348 -0.009111 0.00678775 -0.0193875 -0.00590184 0.00572765 0.00440824 -0.00806694 0.00664583 -0.0193875 -0.00590184 -0.0261274 -0.00835848 -0.00806694 0.00664583 -0.0130671 0.00946441 0.00572765 0.00440824 -0.00806694 0.00664583 0.00205378 0.0203226 0.00226951 0.0271079 -0.00806694 0.00664583 -0.0130671 0.00946441 0.00226951 0.0271079 0.00247623 0.0299981 0.00678775 0.00439092 -0.00590184 0.00667273 0.00440824 0.024646 0.00664583 0.0321491 0.00439092 0.0203111 0.00667273 0.0271124 0.024646 0.0489804 0.0321491 0.0565177 -0.00590184 0.00667273 -0.00835848 0.00946083 0.00664583 0.0321491 0.00946441 0.0355421 0.00667273 0.0271124 0.00946083 0.0300061 0.0321491 0.0565177 0.0355421 0.0594897 0.00440824 0.024646 0.00664583 0.0321491 0.0203226 0.0489862 0.0271079 0.0565148 0.024646 0.0489804 0.0321491 0.0565177 0.0489862 0.0723348 0.0565148 0.0803393 0.00664583 0.0321491 0.00946441 0.0355421 0.0271079 0.0565148 0.0299981 0.0594862 0.0321491 0.0565177 0.0355421 0.0594897 0.0565148 0.0803393 0.0594862 0.0827882 -0.00608528 -0.0077857 -0.00422014 -0.00603976 0.0133614 0.00208238 0.00297043 0.00935678 -0.00617819 -0.00422014 -0.00788332 -0.00609869 0.0132622 0.00297043 0.00202384 0.00935229 -0.00422014 -0.00603976 -0.00609869 -0.0109525 0.00297043 0.00935678 0.00935229 0.0181712 0.0268235 0.0133614 0.0132622 0.00297043 0.0134715 0.0103047 0.0102919 0.0245428 0.0133614 0.00208238 0.00297043 0.00935678 0.0103047 0.020307 0.0245428 0.0390126 0.0132622 0.00297043 0.00202384 0.00935229 0.0102919 0.0245428 0.0203111 0.0390157 0.00297043 0.00935678 0.00935229 0.0181712 0.0245428 0.0390126 0.0390157 0.0523516 -0.0077857 -0.00769817 -0.00603976 -0.0107312 0.00208238 0.00228016 0.00935678 0.0149961 -0.00769817 -0.00671994 -0.0107312 -0.0123469 0.00228016 0.0024876 0.0149961 0.0165803 -0.00603976 -0.0107312 -0.0109525 -0.011009 0.00935678 0.0149961 0.0181712 0.0260674 -0.0107312 -0.0123469 -0.011009 -0.00911587 0.0149961 0.0165803 0.0260674 0.0286676 0.00208238 0.00228016 0.00935678 0.0149961 0.020307 0.0271019 0.0390126 0.0471971 0.00228016 0.0024876 0.0149961 0.0165803 0.0271019 0.0299981 0.0471971 0.0494984 0.00935678 0.0149961 0.0181712 0.0260674 0.0390126 0.0471971 0.0523516 0.0603818 0.0149961 0.0165803 0.0260674 0.0286676 0.0471971 0.0494984 0.0603818 0.0629468 -0.00788332 -0.00609869 -0.00782254 -0.0108128 0.00202384 0.00935229 0.00224472 0.0150017 -0.00609869 -0.0109525 -0.0108128 -0.0110135 0.00935229 0.0181712 0.0150017 0.0260696 -0.00782254 -0.0108128 -0.00688714 -0.0124143 0.00224472 0.0150017 0.00245666 0.0165789 -0.0108128 -0.0110135 -0.0124143 -0.00911982 0.0150017 0.0260696 0.0165789 0.0286703 0.00202384 0.00935229 0.00224472 0.0150017 0.0203111 0.0390157 0.0271124 0.0471993 0.00935229 0.0181712 0.0150017 0.0260696 0.0390157 0.0523516 0.0471993 0.0603841 0.00224472 0.0150017 0.00245666 0.0165789 0.0271124 0.0471993 0.0300061 0.0495002 0.0150017 0.0260696 0.0165789 0.0286703 0.0471993 0.0603841 0.0495002 0.062948 -0.0109525 -0.011009 -0.0110135 -0.0042715 0.0181712 0.0260674 0.0260696 0.033487 -0.011009 -0.00911587 -0.0042715 -0.00146694 0.0260674 0.0286676 0.033487 0.0359789 -0.0110135 -0.0042715 -0.00911982 -0.00146416 0.0260696 0.033487 0.0286703 0.0359804 -0.0042715 -0.00146694 -0.00146416 0.00131792 0.033487 0.0359789 0.0359804 0.0385509 0.0181712 0.0260674 0.0260696 0.033487 0.0523516 0.0603818 0.0603841 0.0678967 0.0260674 0.0286676 0.033487 0.0359789 0.0603818 0.0629468 0.0678967 0.0704963 0.0260696 0.033487 0.0286703 0.0359804 0.0603841 0.0678967 0.062948 0.0704966 0.033487 0.0359789 0.0359804 0.0385509 0.0678967 0.0704963 0.0704966 0.0730012 0.0134715 0.0103047 0.0102919 0.0245428 0.0157223 0.0351803 0.0351829 0.0540016 0.0103047 0.020307 0.0245428 0.0390126 0.0351803 0.0489771 0.0540016 0.0672903 0.0102919 0.0245428 0.0203111 0.0390157 0.0351829 0.0540016 0.0489804 0.0672932 0.0245428 0.0390126 0.0390157 0.0523516 0.0540016 0.0672903 0.0672932 0.0805991 0.0157223 0.0351803 0.0351829 0.0540016 0.0408163 0.0585188 0.0585242 0.077539 0.0351803 0.0489771 0.0540016 0.0672903 0.0585188 0.072329 0.077539 0.0906509 0.0351829 0.0540016 0.0489804 0.0672932 0.0585242 0.077539 0.0723348 0.0906528 0.0540016 0.0672903 0.0672932 0.0805991 0.077539 0.0906509 0.0906528 0.103849 0.020307 0.0271019 0.0390126 0.0471971 0.0489771 0.0565087 0.0672903 0.0752971 0.0271019 0.0299981 0.0471971 0.0494984 0.0565087 0.0594792 0.0752971 0.0778794 0.0390126 0.0471971 0.0523516 0.0603818 0.0672903 0.0752971 0.0805991 0.0884965 0.0471971 0.0494984 0.0603818 0.0629468 0.0752971 0.0778794 0.0884965 0.0911426 0.0489771 0.0565087 0.0672903 0.0752971 0.072329 0.0803339 0.0906509 0.0985996 0.0565087 0.0594792 0.0752971 0.0778794 0.0803339 0.0827843 0.0985996 0.101263 0.0672903 0.0752971 0.0805991 0.0884965 0.0906509 0.0985996 0.103849 0.111755 0.0752971 0.0778794 0.0884965 0.0911426 0.0985996 0.101263 0.111755 0.114386 0.0203111 0.0390157 0.0271124 0.0471993 0.0489804 0.0672932 0.0565177 0.075301 0.0390157 0.0523516 0.0471993 0.0603841 0.0672932 0.0805991 0.075301 0.0884973 0.0271124 0.0471993 0.0300061 0.0495002 0.0565177 0.075301 0.0594897 0.077882 0.0471993 0.0603841 0.0495002 0.062948 0.075301 0.0884973 0.077882 0.0911427 0.0489804 0.0672932 0.0565177 0.075301 0.0723348 0.0906528 0.0803393 0.0986021 0.0672932 0.0805991 0.075301 0.0884973 0.0906528 0.103849 0.0986021 0.111756 0.0565177 0.075301 0.0594897 0.077882 0.0803393 0.0986021 0.0827882 0.101265 0.075301 0.0884973 0.077882 0.0911427 0.0986021 0.111756 0.101265 0.114386 0.0523516 0.0603818 0.0603841 0.0678967 0.0805991 0.0884965 0.0884973 0.0964009 0.0603818 0.0629468 0.0678967 0.0704963 0.0884965 0.0911426 0.0964009 0.0989959 0.0603841 0.0678967 0.062948 0.0704966 0.0884973 0.0964009 0.0911427 0.0989956 0.0678967 0.0704963 0.0704966 0.0730012 0.0964009 0.0989959 0.0989956 0.101593 0.0805991 0.0884965 0.0884973 0.0964009 0.103849 0.111755 0.111756 0.11964 0.0884965 0.0911426 0.0964009 0.0989959 0.111755 0.114386 0.11964 0.122269 0.0884973 0.0964009 0.0911427 0.0989956 0.111756 0.11964 0.114386 0.122268 0.0964009 0.0989959 0.0989956 0.101593 0.11964 0.122269 0.122268 0.124892 0.0321012 0.0268078 0.0372087 0.0134646 0.0192442 0.0132539 0.015138 0.01029 0.0192442 0.0132539 0.015138 0.01029 0.00569599 0.002022 0.00439038 0.0203107 0.0320538 0.0370353 0.0267171 0.0134902 0.0192196 0.0151639 0.0132687 0.0103395 0.0192196 0.0151639 0.0132687 0.0103395 0.00573688 0.00440841 0.00205489 0.0203234 0.0364229 0.0372087 0.0370353 0.0126126 0.0273505 0.015138 0.0151639 0.0126665 0.0372087 0.0134646 0.0126126 0.0157068 0.015138 0.01029 0.0126665 0.0351802 0.0370353 0.0126126 0.0134902 0.0157207 0.0151639 0.0126665 0.0103395 0.0351887 0.0126126 0.0157068 0.0157207 0.0408163 0.0126665 0.0351802 0.0351887 0.058521 0.0273505 0.015138 0.0151639 0.0126665 0.00678631 0.00439038 0.00440841 0.0246455 0.015138 0.01029 0.0126665 0.0351802 0.00439038 0.0203107 0.0246455 0.04898 0.0151639 0.0126665 0.0103395 0.0351887 0.00440841 0.0246455 0.0203234 0.0489858 0.0126665 0.0351802 0.0351887 0.058521 0.0246455 0.04898 0.0489858 0.0723344 -0.00917409 0.00569599 0.00678631 0.00439038 -0.0194335 -0.00820674 -0.0059024 0.00667262 0.00569599 0.002022 0.00439038 0.0203107 -0.00820674 0.00224457 0.00667262 0.0271124 -0.0194335 -0.00820674 -0.0059024 0.00667262 -0.026169 -0.0131413 -0.0083646 0.00946112 -0.00820674 0.00224457 0.00667262 0.0271124 -0.0131413 0.00245683 0.00946112 0.0300062 -0.00909657 0.00678631 0.00573688 0.00440841 -0.0193954 -0.0059024 -0.00805774 0.00664873 0.00573688 0.00440841 0.00205489 0.0203234 -0.00805774 0.00664873 0.00227705 0.0271049 -0.0193954 -0.0059024 -0.00805774 0.00664873 -0.0261331 -0.0083646 -0.0131071 0.00947006 -0.00805774 0.00664873 0.00227705 0.0271049 -0.0131071 0.00947006 0.00246642 0.0300056 0.00678631 0.00439038 0.00440841 0.0246455 -0.0059024 0.00667262 0.00664873 0.0321495 0.00439038 0.0203107 0.0246455 0.04898 0.00667262 0.0271124 0.0321495 0.0565177 0.00440841 0.0246455 0.0203234 0.0489858 0.00664873 0.0321495 0.0271049 0.056516 0.0246455 0.04898 0.0489858 0.0723344 0.0321495 0.0565177 0.056516 0.0803394 -0.0059024 0.00667262 0.00664873 0.0321495 -0.0083646 0.00946112 0.00947006 0.0355428 0.00667262 0.0271124 0.0321495 0.0565177 0.00946112 0.0300062 0.0355428 0.0594899 0.00664873 0.0321495 0.0271049 0.056516 0.00947006 0.0355428 0.0300056 0.059487 0.0321495 0.0565177 0.056516 0.0803394 0.0355428 0.0594899 0.059487 0.0827884 -0.00608824 -0.00778719 0.0133577 0.00208252 -0.00422349 -0.00604044 0.00296966 0.00935671 0.0268078 0.0133577 0.0134646 0.0103035 0.0132539 0.00296966 0.01029 0.0245423 0.0133577 0.00208252 0.0103035 0.0203073 0.00296966 0.00935671 0.0245423 0.0390125 -0.00618471 -0.00422349 0.0132539 0.00296966 -0.00788697 -0.00610062 0.002022 0.00935204 -0.00422349 -0.00604044 0.00296966 0.00935671 -0.00610062 -0.0109527 0.00935204 0.0181712 0.0132539 0.00296966 0.01029 0.0245423 0.002022 0.00935204 0.0203107 0.0390154 0.00296966 0.00935671 0.0245423 0.0390125 0.00935204 0.0181712 0.0390154 0.0523515 -0.00778719 -0.00769716 0.00208252 0.00228053 -0.00604044 -0.0107307 0.00935671 0.0149962 -0.00769716 -0.00671707 0.00228053 0.00248827 -0.0107307 -0.0123459 0.0149962 0.0165804 0.00208252 0.00228053 0.0203073 0.0271022 0.00935671 0.0149962 0.0390125 0.0471973 0.00228053 0.00248827 0.0271022 0.0299987 0.0149962 0.0165804 0.0471973 0.0494986 -0.00604044 -0.0107307 0.00935671 0.0149962 -0.0109527 -0.0110089 0.0181712 0.0260674 -0.0107307 -0.0123459 0.0149962 0.0165804 -0.0110089 -0.00911584 0.0260674 0.0286676 0.00935671 0.0149962 0.0390125 0.0471973 0.0181712 0.0260674 0.0523515 0.0603818 0.0149962 0.0165804 0.0471973 0.0494986 0.0260674 0.0286676 0.0603818 0.0629468 0.0134646 0.0103035 0.0157068 0.0351813 0.01029 0.0245423 0.0351802 0.0539999 0.0103035 0.0203073 0.0351813 0.0489776 0.0245423 0.0390125 0.0539999 0.0672903 0.0157068 0.0351813 0.0408163 0.0585188 0.0351802 0.0539999 0.058521 0.0775383 0.0351813 0.0489776 0.0585188 0.072329 0.0539999 0.0672903 0.0775383 0.0906508 0.01029 0.0245423 0.0351802 0.0539999 0.0203107 0.0390154 0.04898 0.0672928 0.0245423 0.0390125 0.0539999 0.0672903 0.0390154 0.0523515 0.0672928 0.0805988 0.0351802 0.0539999 0.058521 0.0775383 0.04898 0.0672928 0.0723344 0.0906523 0.0539999 0.0672903 0.0775383 0.0906508 0.0672928 0.0805988 0.0906523 0.103848 0.0203073 0.0271022 0.0489776 0.0565087 0.0390125 0.0471973 0.0672903 0.0752972 0.0271022 0.0299987 0.0565087 0.0594795 0.0471973 0.0494986 0.0752972 0.0778796 0.0489776 0.0565087 0.072329 0.0803339 0.0672903 0.0752972 0.0906508 0.0985996 0.0565087 0.0594795 0.0803339 0.0827843 0.0752972 0.0778796 0.0985996 0.101263 0.0390125 0.0471973 0.0672903 0.0752972 0.0523515 0.0603818 0.0805988 0.0884965 0.0471973 0.0494986 0.0752972 0.0778796 0.0603818 0.0629468 0.0884965 0.0911427 0.0672903 0.0752972 0.0906508 0.0985996 0.0805988 0.0884965 0.103848 0.111755 0.0752972 0.0778796 0.0985996 0.101263 0.0884965 0.0911427 0.111755 0.114386 -0.00788697 -0.00610062 0.002022 0.00935204 -0.00782321 -0.0108132 0.00224457 0.0150017 -0.00610062 -0.0109527 0.00935204 0.0181712 -0.0108132 -0.0110136 0.0150017 0.0260696 0.002022 0.00935204 0.0203107 0.0390154 0.00224457 0.0150017 0.0271124 0.0471992 0.00935204 0.0181712 0.0390154 0.0523515 0.0150017 0.0260696 0.0471992 0.0603841 -0.00782321 -0.0108132 0.00224457 0.0150017 -0.0068863 -0.012414 0.00245683 0.0165789 -0.0108132 -0.0110136 0.0150017 0.0260696 -0.012414 -0.00911982 0.0165789 0.0286703 0.00224457 0.0150017 0.0271124 0.0471992 0.00245683 0.0165789 0.0300062 0.0495003 0.0150017 0.0260696 0.0471992 0.0603841 0.0165789 0.0286703 0.0495003 0.062948 -0.0109527 -0.0110089 0.0181712 0.0260674 -0.0110136 -0.0042715 0.0260696 0.033487 -0.0110089 -0.00911584 0.0260674 0.0286676 -0.0042715 -0.00146696 0.033487 0.0359789 0.0181712 0.0260674 0.0523515 0.0603818 0.0260696 0.033487 0.0603841 0.0678966 0.0260674 0.0286676 0.0603818 0.0629468 0.033487 0.0359789 0.0678966 0.0704963 -0.0110136 -0.0042715 0.0260696 0.033487 -0.00911982 -0.00146417 0.0286703 0.0359804 -0.0042715 -0.00146696 0.033487 0.0359789 -0.00146417 0.00131791 0.0359804 0.0385508 0.0260696 0.033487 0.0603841 0.0678966 0.0286703 0.0359804 0.062948 0.0704965 0.033487 0.0359789 0.0678966 0.0704963 0.0359804 0.0385508 0.0704965 0.0730012 0.0203107 0.0390154 0.04898 0.0672928 0.0271124 0.0471992 0.0565177 0.0753009 0.0390154 0.0523515 0.0672928 0.0805988 0.0471992 0.0603841 0.0753009 0.0884973 0.04898 0.0672928 0.0723344 0.0906523 0.0565177 0.0753009 0.0803394 0.0986021 0.0672928 0.0805988 0.0906523 0.103848 0.0753009 0.0884973 0.0986021 0.111756 0.0271124 0.0471992 0.0565177 0.0753009 0.0300062 0.0495003 0.0594899 0.0778821 0.0471992 0.0603841 0.0753009 0.0884973 0.0495003 0.062948 0.0778821 0.0911427 0.0565177 0.0753009 0.0803394 0.0986021 0.0594899 0.0778821 0.0827884 0.101265 0.0753009 0.0884973 0.0986021 0.111756 0.0778821 0.0911427 0.101265 0.114386 0.0523515 0.0603818 0.0805988 0.0884965 0.0603841 0.0678966 0.0884973 0.0964009 0.0603818 0.0629468 0.0884965 0.0911427 0.0678966 0.0704963 0.0964009 0.0989959 0.0805988 0.0884965 0.103848 0.111755 0.0884973 0.0964009 0.111756 0.11964 0.0884965 0.0911427 0.111755 0.114386 0.0964009 0.0989959 0.11964 0.122269 0.0603841 0.0678966 0.0884973 0.0964009 0.062948 0.0704965 0.0911427 0.0989956 0.0678966 0.0704963 0.0964009 0.0989959 0.0704965 0.0730012 0.0989956 0.101593 0.0884973 0.0964009 0.111756 0.11964 0.0911427 0.0989956 0.114386 0.122268 0.0964009 0.0989959 0.11964 0.122269 0.0989956 0.101593 0.122268 0.124892 0.0267171 0.0134902 0.0132684 0.0103395 0.0132687 0.0103395 0.00303641 0.0245555 -0.00610813 0.0132684 -0.0078069 0.00205378 -0.00418094 0.00303641 -0.00602164 0.00937943 0.0132684 0.0103395 0.00205378 0.0203226 0.00303641 0.0245555 0.00937943 0.0390233 -0.0061005 0.0132687 -0.00418094 0.00303641 -0.0078098 0.00205489 -0.00602036 0.00937981 0.0132687 0.0103395 0.00303641 0.0245555 0.00205489 0.0203234 0.00937981 0.0390241 -0.00418094 0.00303641 -0.00602164 0.00937943 -0.00602036 0.00937981 -0.0109145 0.0181725 0.00303641 0.0245555 0.00937943 0.0390233 0.00937981 0.0390241 0.0181725 0.0523608 0.0134902 0.0157207 0.0103395 0.0351917 0.0103395 0.0351887 0.0245555 0.0540146 0.0157207 0.0408163 0.0351917 0.0585242 0.0351887 0.058521 0.0540146 0.0775418 0.0103395 0.0351917 0.0203226 0.0489862 0.0245555 0.0540146 0.0390233 0.0672985 0.0351917 0.0585242 0.0489862 0.0723348 0.0540146 0.0775418 0.0672985 0.090655 0.0103395 0.0351887 0.0245555 0.0540146 0.0203234 0.0489858 0.0390241 0.0672984 0.0351887 0.058521 0.0540146 0.0775418 0.0489858 0.0723344 0.0672984 0.0906547 0.0245555 0.0540146 0.0390233 0.0672985 0.0390241 0.0672984 0.0523608 0.0806035 0.0540146 0.0775418 0.0672985 0.090655 0.0672984 0.0906547 0.0806035 0.103851 -0.0078069 0.00205378 -0.00772683 0.00226951 -0.00602164 0.00937943 -0.0107398 0.0149964 0.00205378 0.0203226 0.00226951 0.0271079 0.00937943 0.0390233 0.0149964 0.0472019 -0.00772683 0.00226951 -0.00680086 0.00247623 -0.0107398 0.0149964 -0.0123738 0.0165783 0.00226951 0.0271079 0.00247623 0.0299981 0.0149964 0.0472019 0.0165783 0.0495002 -0.00602164 0.00937943 -0.0107398 0.0149964 -0.0109145 0.0181725 -0.0110096 0.0260701 0.00937943 0.0390233 0.0149964 0.0472019 0.0181725 0.0523608 0.0260701 0.0603851 -0.0107398 0.0149964 -0.0123738 0.0165783 -0.0110096 0.0260701 -0.00911693 0.0286678 0.0149964 0.0472019 0.0165783 0.0495002 0.0260701 0.0603851 0.0286678 0.0629481 0.0203226 0.0489862 0.0271079 0.0565148 0.0390233 0.0672985 0.0472019 0.0753023 0.0489862 0.0723348 0.0565148 0.0803393 0.0672985 0.090655 0.0753023 0.0986029 0.0271079 0.0565148 0.0299981 0.0594862 0.0472019 0.0753023 0.0495002 0.0778821 0.0565148 0.0803393 0.0594862 0.0827882 0.0753023 0.0986029 0.0778821 0.101265 0.0390233 0.0672985 0.0472019 0.0753023 0.0523608 0.0806035 0.0603851 0.0884998 0.0672985 0.090655 0.0753023 0.0986029 0.0806035 0.103851 0.0884998 0.111757 0.0472019 0.0753023 0.0495002 0.0778821 0.0603851 0.0884998 0.